Title: * /home/mahimagoyen1996/esim-workspace/mahima_8bit_6tram/mahima_8bit_6tram.cir
Date: Sat Oct  8 22:31:39  2022
Plotname: Transient Analysis
Flags: real
No. Variables: 413
No. Points: 0       
Variables:
